# vtk DataFile Version 3.0
vtk output
ASCII
DATASET POLYDATA
POINTS 638 float
-51.466 -32.06 79 -51.0363 -32.06 79 -50.6066 -32.06 79 
-50.1769 -32.06 79 -49.7472 -32.06 79 -52.3254 -31.6303 79 
-51.8957 -31.6303 79 -51.466 -31.6303 79 -51.0363 -31.6303 79 
-50.6066 -31.6303 79 -50.1769 -31.6303 79 -49.7472 -31.6303 79 
-49.3175 -31.6303 79 -52.7551 -31.2006 79 -52.3254 -31.2006 79 
-51.8957 -31.2006 79 -51.466 -31.2006 79 -51.0363 -31.2006 79 
-50.6066 -31.2006 79 -50.1769 -31.2006 79 -49.7472 -31.2006 79 
-49.3175 -31.2006 79 -48.8878 -31.2006 79 -53.6145 -30.7709 79 
-53.1848 -30.7709 79 -52.7551 -30.7709 79 -52.3254 -30.7709 79 
-51.8957 -30.7709 79 -51.466 -30.7709 79 -51.0363 -30.7709 79 
-50.6066 -30.7709 79 -50.1769 -30.7709 79 -49.7472 -30.7709 79 
-49.3175 -30.7709 79 -48.8878 -30.7709 79 -48.4581 -30.7709 79 
-54.0442 -30.3412 79 -53.6145 -30.3412 79 -53.1848 -30.3412 79 
-52.7551 -30.3412 79 -52.3254 -30.3412 79 -51.8957 -30.3412 79 
-51.466 -30.3412 79 -51.0363 -30.3412 79 -50.6066 -30.3412 79 
-49.3175 -30.3412 79 -48.8878 -30.3412 79 -48.4581 -30.3412 79 
-48.0284 -30.3412 79 -54.0442 -29.9115 79 -52.7551 -29.9115 79 
-52.3254 -29.9115 79 -51.8957 -29.9115 79 -51.466 -29.9115 79 
-51.0363 -29.9115 79 -50.6066 -29.9115 79 -50.1769 -29.9115 79 
-49.7472 -29.9115 79 -49.3175 -29.9115 79 -48.8878 -29.9115 79 
-48.4581 -29.9115 79 -48.0284 -29.9115 79 -52.7551 -29.4818 79 
-51.466 -29.4818 79 -51.0363 -29.4818 79 -50.6066 -29.4818 79 
-50.1769 -29.4818 79 -49.7472 -29.4818 79 -49.3175 -29.4818 79 
-48.8878 -29.4818 79 -48.4581 -29.4818 79 -48.0284 -29.4818 79 
-54.0442 -29.0521 79 -51.0363 -29.0521 79 -50.6066 -29.0521 79 
-50.1769 -29.0521 79 -49.7472 -29.0521 79 -49.3175 -29.0521 79 
-48.8878 -29.0521 79 -48.4581 -29.0521 79 -48.0284 -29.0521 79 
-54.4739 -28.6224 79 -54.0442 -28.6224 79 -53.6145 -28.6224 79 
-53.1848 -28.6224 79 -51.466 -28.6224 79 -51.0363 -28.6224 79 
-50.6066 -28.6224 79 -50.1769 -28.6224 79 -49.7472 -28.6224 79 
-49.3175 -28.6224 79 -48.8878 -28.6224 79 -48.4581 -28.6224 79 
-48.0284 -28.6224 79 -54.4739 -28.1927 79 -54.0442 -28.1927 79 
-53.6145 -28.1927 79 -53.1848 -28.1927 79 -52.7551 -28.1927 79 
-52.3254 -28.1927 79 -51.8957 -28.1927 79 -51.466 -28.1927 79 
-51.0363 -28.1927 79 -50.6066 -28.1927 79 -50.1769 -28.1927 79 
-49.7472 -28.1927 79 -49.3175 -28.1927 79 -48.8878 -28.1927 79 
-48.4581 -28.1927 79 -48.0284 -28.1927 79 -54.0442 -27.763 79 
-53.6145 -27.763 79 -53.1848 -27.763 79 -52.7551 -27.763 79 
-52.3254 -27.763 79 -51.8957 -27.763 79 -51.466 -27.763 79 
-51.0363 -27.763 79 -50.6066 -27.763 79 -50.1769 -27.763 79 
-49.7472 -27.763 79 -49.3175 -27.763 79 -48.8878 -27.763 79 
-48.4581 -27.763 79 -48.0284 -27.763 79 -47.5987 -27.763 79 
-53.6145 -27.3333 79 -53.1848 -27.3333 79 -52.7551 -27.3333 79 
-52.3254 -27.3333 79 -51.8957 -27.3333 79 -51.466 -27.3333 79 
-51.0363 -27.3333 79 -49.3175 -27.3333 79 -48.8878 -27.3333 79 
-48.4581 -27.3333 79 -48.0284 -27.3333 79 -47.5987 -27.3333 79 
-53.1848 -26.9036 79 -52.7551 -26.9036 79 -48.8878 -26.9036 79 
-48.4581 -26.9036 79 -48.0284 -26.9036 79 -47.5987 -26.9036 79 
-49.7472 -35.0679 82 -49.3175 -35.0679 82 -48.8878 -35.0679 82 
-49.7472 -34.6382 82 -49.3175 -34.6382 82 -48.8878 -34.6382 82 
-49.7472 -34.2085 82 -49.3175 -34.2085 82 -48.8878 -34.2085 82 
-54.0442 -33.7788 82 -53.6145 -33.7788 82 -48.8878 -33.7788 82 
-54.0442 -33.3491 82 -53.6145 -33.3491 82 -53.1848 -33.3491 82 
-54.0442 -32.9194 82 -53.6145 -32.9194 82 -53.1848 -32.9194 82 
-54.0442 -32.4897 82 -53.6145 -32.4897 82 -53.1848 -32.4897 82 
-50.6066 -32.4897 82 -54.0442 -32.06 82 -53.6145 -32.06 82 
-53.1848 -32.06 82 -52.7551 -32.06 82 -52.3254 -32.06 82 
-51.8957 -32.06 82 -51.466 -32.06 82 -51.0363 -32.06 82 
-50.1769 -32.06 82 -49.3175 -32.06 82 -48.8878 -32.06 82 
-48.4581 -32.06 82 -54.4739 -31.6303 82 -54.0442 -31.6303 82 
-53.6145 -31.6303 82 -53.1848 -31.6303 82 -52.7551 -31.6303 82 
-49.7472 -31.6303 82 -48.8878 -31.6303 82 -48.4581 -31.6303 82 
-48.0284 -31.6303 82 -54.4739 -31.2006 82 -54.0442 -31.2006 82 
-53.6145 -31.2006 82 -53.1848 -31.2006 82 -48.4581 -31.2006 82 
-48.0284 -31.2006 82 -47.5987 -31.2006 82 -54.4739 -30.7709 82 
-54.0442 -30.7709 82 -48.0284 -30.7709 82 -47.5987 -30.7709 82 
-47.169 -30.7709 82 -54.4739 -30.3412 82 -50.1769 -30.3412 82 
-49.7472 -30.3412 82 -47.5987 -30.3412 82 -47.169 -30.3412 82 
-46.7393 -30.3412 82 -54.4739 -29.9115 82 -53.6145 -29.9115 82 
-53.1848 -29.9115 82 -47.5987 -29.9115 82 -47.169 -29.9115 82 
-46.7393 -29.9115 82 -54.4739 -29.4818 82 -54.0442 -29.4818 82 
-53.6145 -29.4818 82 -53.1848 -29.4818 82 -52.3254 -29.4818 82 
-51.8957 -29.4818 82 -47.5987 -29.4818 82 -47.169 -29.4818 82 
-46.7393 -29.4818 82 -54.9036 -29.0521 82 -54.4739 -29.0521 82 
-53.6145 -29.0521 82 -53.1848 -29.0521 82 -52.7551 -29.0521 82 
-52.3254 -29.0521 82 -51.8957 -29.0521 82 -51.466 -29.0521 82 
-47.5987 -29.0521 82 -47.169 -29.0521 82 -54.9036 -28.6224 82 
-52.7551 -28.6224 82 -52.3254 -28.6224 82 -51.8957 -28.6224 82 
-47.5987 -28.6224 82 -47.169 -28.6224 82 -54.9036 -28.1927 82 
-47.5987 -28.1927 82 -47.169 -28.1927 82 -55.3333 -27.763 82 
-54.9036 -27.763 82 -54.4739 -27.763 82 -47.169 -27.763 82 
-54.9036 -27.3333 82 -54.4739 -27.3333 82 -54.0442 -27.3333 82 
-50.6066 -27.3333 82 -50.1769 -27.3333 82 -49.7472 -27.3333 82 
-47.169 -27.3333 82 -53.6145 -27.3333 82 -53.1848 -26.9036 82 
-52.3254 -26.9036 82 -51.8957 -26.9036 82 -51.466 -26.9036 82 
-51.0363 -26.9036 82 -50.6066 -26.9036 82 -50.1769 -26.9036 82 
-49.7472 -26.9036 82 -49.3175 -26.9036 82 -47.5987 -26.9036 82 
-52.7551 -26.9036 82 -50.1769 -26.4739 82 -49.7472 -26.4739 82 
-49.3175 -26.4739 82 -48.8878 -26.4739 82 -48.4581 -26.9036 82 
-48.0284 -26.9036 82 -52.3254 -36.7867 85 -51.8957 -36.7867 85 
-51.466 -36.7867 85 -51.0363 -36.7867 85 -50.6066 -36.7867 85 
-50.1769 -36.7867 85 -52.7551 -36.357 85 -52.3254 -36.357 85 
-51.8957 -36.357 85 -51.466 -36.357 85 -51.0363 -36.357 85 
-50.6066 -36.357 85 -50.1769 -36.357 85 -49.7472 -36.357 85 
-52.7551 -35.9273 85 -52.3254 -35.9273 85 -51.8957 -35.9273 85 
-51.466 -35.9273 85 -51.0363 -35.9273 85 -50.6066 -35.9273 85 
-50.1769 -35.9273 85 -49.7472 -35.9273 85 -49.3175 -35.9273 85 
-48.8878 -35.9273 85 -52.7551 -35.4976 85 -52.3254 -35.4976 85 
-51.8957 -35.4976 85 -51.466 -35.4976 85 -51.0363 -35.4976 85 
-50.6066 -35.4976 85 -50.1769 -35.4976 85 -49.7472 -35.4976 85 
-49.3175 -35.4976 85 -48.8878 -35.4976 85 -48.4581 -35.4976 85 
-48.0284 -35.4976 85 -53.6145 -35.0679 85 -53.1848 -35.0679 85 
-52.7551 -35.0679 85 -51.8957 -35.0679 85 -51.466 -35.0679 85 
-51.0363 -35.0679 85 -50.6066 -35.0679 85 -50.1769 -35.0679 85 
-48.4581 -35.0679 85 -48.0284 -35.0679 85 -47.5987 -35.0679 85 
-47.169 -35.0679 85 -54.0442 -34.6382 85 -53.6145 -34.6382 85 
-53.1848 -34.6382 85 -52.7551 -34.6382 85 -52.3254 -34.6382 85 
-51.8957 -34.6382 85 -51.466 -34.6382 85 -51.0363 -34.6382 85 
-50.6066 -34.6382 85 -50.1769 -34.6382 85 -48.4581 -34.6382 85 
-48.0284 -34.6382 85 -47.5987 -34.6382 85 -47.169 -34.6382 85 
-46.7393 -34.6382 85 -54.0442 -34.2085 85 -53.6145 -34.2085 85 
-53.1848 -34.2085 85 -52.7551 -34.2085 85 -52.3254 -34.2085 85 
-51.8957 -34.2085 85 -51.466 -34.2085 85 -51.0363 -34.2085 85 
-50.6066 -34.2085 85 -50.1769 -34.2085 85 -48.4581 -34.2085 85 
-48.0284 -34.2085 85 -47.5987 -34.2085 85 -47.169 -34.2085 85 
-46.7393 -34.2085 85 -46.3096 -34.2085 85 -54.0442 -33.7788 85 
-53.1848 -33.7788 85 -52.7551 -33.7788 85 -52.3254 -33.7788 85 
-51.8957 -33.7788 85 -51.466 -33.7788 85 -51.0363 -33.7788 85 
-50.6066 -33.7788 85 -50.1769 -33.7788 85 -49.7472 -33.7788 85 
-49.3175 -33.7788 85 -48.4581 -33.7788 85 -48.0284 -33.7788 85 
-47.5987 -33.7788 85 -47.169 -33.7788 85 -46.7393 -33.7788 85 
-46.3096 -33.7788 85 -54.4739 -33.3491 85 -52.7551 -33.3491 85 
-52.3254 -33.3491 85 -51.8957 -33.3491 85 -51.466 -33.3491 85 
-51.0363 -33.3491 85 -50.6066 -33.3491 85 -50.1769 -33.3491 85 
-49.7472 -33.3491 85 -49.3175 -33.3491 85 -48.8878 -33.3491 85 
-48.4581 -33.3491 85 -48.0284 -33.3491 85 -47.5987 -33.3491 85 
-47.169 -33.3491 85 -46.7393 -33.3491 85 -46.3096 -33.3491 85 
-54.9036 -32.9194 85 -54.4739 -32.9194 85 -52.7551 -32.9194 85 
-52.3254 -32.9194 85 -51.8957 -32.9194 85 -51.466 -32.9194 85 
-51.0363 -32.9194 85 -50.6066 -32.9194 85 -50.1769 -32.9194 85 
-49.7472 -32.9194 85 -49.3175 -32.9194 85 -48.8878 -32.9194 85 
-48.4581 -32.9194 85 -48.0284 -32.9194 85 -47.5987 -32.9194 85 
-47.169 -32.9194 85 -46.7393 -32.9194 85 -46.3096 -32.9194 85 
-45.8799 -32.9194 85 -54.4739 -32.4897 85 -52.7551 -32.4897 85 
-52.3254 -32.4897 85 -51.8957 -32.4897 85 -51.466 -32.4897 85 
-51.0363 -32.4897 85 -50.1769 -32.4897 85 -49.7472 -32.4897 85 
-49.3175 -32.4897 85 -48.8878 -32.4897 85 -48.4581 -32.4897 85 
-48.0284 -32.4897 85 -47.5987 -32.4897 85 -47.169 -32.4897 85 
-46.7393 -32.4897 85 -46.3096 -32.4897 85 -45.8799 -32.4897 85 
-54.4739 -32.06 85 -49.7472 -32.06 85 -48.0284 -32.06 85 
-47.5987 -32.06 85 -47.169 -32.06 85 -46.7393 -32.06 85 
-46.3096 -32.06 85 -45.8799 -32.06 85 -54.0442 -31.6303 85 
-47.5987 -31.6303 85 -47.169 -31.6303 85 -46.7393 -31.6303 85 
-46.3096 -31.6303 85 -45.8799 -31.6303 85 -53.6145 -31.2006 85 
-47.169 -31.2006 85 -46.7393 -31.2006 85 -46.3096 -31.2006 85 
-53.6145 -30.7709 82 -53.1848 -30.7709 85 -46.7393 -30.7709 85 
-46.3096 -30.7709 85 -54.0442 -30.3412 82 -53.6145 -30.3412 82 
-53.1848 -30.3412 82 -52.7551 -30.7709 85 -52.7551 -30.3412 82 
-52.3254 -30.3412 85 -46.7393 -30.3412 85 -54.0442 -29.9115 82 
-53.1848 -29.9115 85 -52.7551 -29.9115 85 -48.0284 -29.9115 82 
-48.4581 -29.9115 85 -48.0284 -30.3412 85 -47.5987 -29.9115 85 
-47.169 -29.9115 85 -53.6145 -29.4818 85 -48.4581 -29.4818 82 
-48.8878 -29.4818 85 -48.0284 -29.4818 82 -54.0442 -29.0521 82 
-53.6145 -29.0521 85 -48.8878 -29.0521 82 -49.3175 -29.0521 85 
[...]
POINT_DATA 638
SCALARS scalars float
LOOKUP_TABLE default
255 255 255 255 255 255 255 255 255 
255 255 255 255 255 255 255 255 255 
255 255 255 255 255 255 255 255 255 
255 255 255 255 255 255 255 255 255 
255 255 255 255 255 255 255 255 255 
255 255 255 255 255 255 255 255 255 
255 255 255 255 255 255 255 255 255 
255 255 255 255 255 255 255 255 255 
255 255 255 255 255 255 255 255 255 
255 255 255 255 255 255 255 255 255 
255 255 255 255 255 255 255 255 255 
255 255 255 255 255 255 255 255 255 
255 255 255 255 255 255 255 255 255 
255 255 255 255 255 255 255 255 255 
255 255 255 255 255 255 255 255 255 
255 255 255 255 255 255 255 255 255 
255 255 255 255 255 255 255 255 255 
255 255 255 255 255 255 255 255 255 
255 255 255 255 255 255 255 255 255 
255 255 255 255 255 255 255 255 255 
255 255 255 255 255 255 255 255 255 
255 255 255 255 255 255 255 255 255 
255 255 255 255 255 255 255 255 255 
255 255 255 255 255 255 255 255 255 
255 255 255 255 255 255 255 255 255 
255 255 255 255 255 255 255 255 255 
255 255 255 255 255 255 255 255 255 
255 255 255 255 255 255 255 255 255 
255 255 255 255 255 255 255 255 255 
255 255 255 255 255 255 255 255 255 
255 255 255 255 255 255 255 255 255 
255 255 255 255 255 255 255 255 255 
255 255 255 255 255 255 255 255 255 
255 255 255 255 255 255 255 255 255 
255 255 255 255 255 255 255 255 255 
255 255 255 255 255 255 255 255 255 
255 255 255 255 255 255 255 255 255 
255 255 255 255 255 255 255 255 255 
255 255 255 255 255 255 255 255 255 
255 255 255 255 255 255 255 255 255 
255 255 255 255 255 255 255 255 255 
255 255 255 255 255 255 255 255 255 
255 255 255 255 255 255 255 255 255 
255 255 255 255 255 255 255 255 255 
255 255 255 255 255 255 255 255 255 
255 255 255 255 255 255 255 255 255 
255 255 255 255 255 255 255 255 255 
255 255 255 255 255 255 255 255 255 
255 255 255 255 255 255 255 255 255 
255 255 255 255 255 255 255 255 255 
255 255 255 255 255 255 255 255 255 
255 255 255 255 255 255 255 255 255 
255 255 255 255 255 255 255 255 255 
255 255 255 255 255 255 255 255 255 
255 255 255 255 255 255 255 255 255 
255 255 255 255 255 255 255 255 255 
255 255 255 255 255 255 255 255 255 
255 255 255 255 255 255 255 255 255 
255 255 255 255 255 255 255 255 255 
255 255 255 255 255 255 255 255 255 
255 255 255 255 255 255 255 255 255 
255 255 255 255 255 255 255 255 255 
255 255 255 255 255 255 255 255 255 
255 255 255 255 255 255 255 255 255 
255 255 255 255 255 255 255 255 255 
255 255 255 255 255 255 255 255 255 
255 255 255 255 255 255 255 255 255 
255 255 255 255 255 255 255 255 255 
255 255 255 255 255 255 255 255 255 
255 255 255 255 255 255 255 255 255 
255 255 255 255 255 255 255 255 
