# vtk DataFile Version 3.0
vtk output
ASCII
DATASET POLYDATA
POINTS 882 float
-50.6066 11.3397 -98 -50.1769 11.3397 -98 -49.7472 11.3397 -98 
-49.3175 11.3397 -98 -48.8878 11.3397 -98 -48.4581 11.3397 -98 
-52.7551 11.7694 -98 -52.3254 11.7694 -98 -51.8957 11.7694 -98 
-51.466 11.7694 -98 -51.0363 11.7694 -98 -50.6066 11.7694 -98 
-50.1769 11.7694 -98 -49.7472 11.7694 -98 -49.3175 11.7694 -98 
-48.8878 11.7694 -98 -48.4581 11.7694 -98 -48.0284 11.7694 -98 
-56.6224 12.1991 -98 -56.1927 12.1991 -98 -55.763 12.1991 -98 
-53.1848 12.1991 -98 -52.7551 12.1991 -98 -52.3254 12.1991 -98 
-51.8957 12.1991 -98 -51.466 12.1991 -98 -51.0363 12.1991 -98 
-50.6066 12.1991 -98 -50.1769 12.1991 -98 -49.7472 12.1991 -98 
-49.3175 12.1991 -98 -48.8878 12.1991 -98 -48.4581 12.1991 -98 
-48.0284 12.1991 -98 -56.6224 12.6288 -98 -56.1927 12.6288 -98 
-55.763 12.6288 -98 -55.3333 12.6288 -98 -53.6145 12.6288 -98 
-53.1848 12.6288 -98 -52.7551 12.6288 -98 -52.3254 12.6288 -98 
-51.8957 12.6288 -98 -51.466 12.6288 -98 -51.0363 12.6288 -98 
-50.6066 12.6288 -98 -50.1769 12.6288 -98 -49.7472 12.6288 -98 
-49.3175 12.6288 -98 -48.8878 12.6288 -98 -48.4581 12.6288 -98 
-48.0284 12.6288 -98 -56.1927 13.0585 -98 -55.763 13.0585 -98 
-55.3333 13.0585 -98 -54.9036 13.0585 -98 -53.6145 13.0585 -98 
-53.1848 13.0585 -98 -52.7551 13.0585 -98 -52.3254 13.0585 -98 
-51.8957 13.0585 -98 -51.466 13.0585 -98 -51.0363 13.0585 -98 
-50.6066 13.0585 -98 -50.1769 13.0585 -98 -49.7472 13.0585 -98 
-49.3175 13.0585 -98 -48.8878 13.0585 -98 -48.4581 13.0585 -98 
-48.0284 13.0585 -98 -47.5987 13.0585 -98 -55.763 13.4882 -98 
-55.3333 13.4882 -98 -54.9036 13.4882 -98 -53.6145 13.4882 -98 
-53.1848 13.4882 -98 -52.7551 13.4882 -98 -52.3254 13.4882 -98 
-51.8957 13.4882 -98 -51.466 13.4882 -98 -51.0363 13.4882 -98 
-50.6066 13.4882 -98 -50.1769 13.4882 -98 -49.7472 13.4882 -98 
-49.3175 13.4882 -98 -48.8878 13.4882 -98 -48.4581 13.4882 -98 
-48.0284 13.4882 -98 -47.5987 13.4882 -98 -47.169 13.4882 -98 
-53.6145 13.9179 -98 -53.1848 13.9179 -98 -52.7551 13.9179 -98 
-52.3254 13.9179 -98 -51.8957 13.9179 -98 -51.466 13.9179 -98 
-51.0363 13.9179 -98 -50.6066 13.9179 -98 -50.1769 13.9179 -98 
-49.7472 13.9179 -98 -49.3175 13.9179 -98 -48.8878 13.9179 -98 
-48.4581 13.9179 -98 -48.0284 13.9179 -98 -47.5987 13.9179 -98 
-47.169 13.9179 -98 -46.7393 13.9179 -98 -53.6145 14.3476 -98 
-53.1848 14.3476 -98 -52.7551 14.3476 -98 -52.3254 14.3476 -98 
-51.8957 14.3476 -98 -51.466 14.3476 -98 -51.0363 14.3476 -98 
-50.6066 14.3476 -98 -50.1769 14.3476 -98 -49.7472 14.3476 -98 
-49.3175 14.3476 -98 -48.8878 14.3476 -98 -48.4581 14.3476 -98 
-48.0284 14.3476 -98 -47.5987 14.3476 -98 -47.169 14.3476 -98 
-46.7393 14.3476 -98 -46.3096 14.3476 -98 -56.6224 14.7773 -98 
-53.6145 14.7773 -98 -53.1848 14.7773 -98 -52.7551 14.7773 -98 
-52.3254 14.7773 -98 -51.8957 14.7773 -98 -51.466 14.7773 -98 
-51.0363 14.7773 -98 -50.6066 14.7773 -98 -50.1769 14.7773 -98 
-49.7472 14.7773 -98 -49.3175 14.7773 -98 -48.8878 14.7773 -98 
-48.4581 14.7773 -98 -48.0284 14.7773 -98 -47.5987 14.7773 -98 
-47.169 14.7773 -98 -46.7393 14.7773 -98 -46.3096 14.7773 -98 
-56.6224 15.207 -98 -56.1927 15.207 -98 -54.0442 15.207 -98 
-53.6145 15.207 -98 -53.1848 15.207 -98 -52.7551 15.207 -98 
-52.3254 15.207 -98 -51.8957 15.207 -98 -51.466 15.207 -98 
-51.0363 15.207 -98 -50.6066 15.207 -98 -50.1769 15.207 -98 
-49.7472 15.207 -98 -49.3175 15.207 -98 -48.8878 15.207 -98 
-48.4581 15.207 -98 -48.0284 15.207 -98 -47.5987 15.207 -98 
-47.169 15.207 -98 -46.7393 15.207 -98 -46.3096 15.207 -98 
-45.8799 15.207 -98 -56.6224 15.6367 -98 -56.1927 15.6367 -98 
-54.0442 15.6367 -98 -53.6145 15.6367 -98 -53.1848 15.6367 -98 
-52.7551 15.6367 -98 -52.3254 15.6367 -98 -51.8957 15.6367 -98 
-51.466 15.6367 -98 -51.0363 15.6367 -98 -50.6066 15.6367 -98 
-50.1769 15.6367 -98 -49.7472 15.6367 -98 -49.3175 15.6367 -98 
-48.8878 15.6367 -98 -48.4581 15.6367 -98 -48.0284 15.6367 -98 
-47.5987 15.6367 -98 -47.169 15.6367 -98 -46.7393 15.6367 -98 
-46.3096 15.6367 -98 -45.8799 15.6367 -98 -54.4739 16.0664 -98 
-54.0442 16.0664 -98 -53.6145 16.0664 -98 -53.1848 16.0664 -98 
-52.7551 16.0664 -98 -52.3254 16.0664 -98 -51.8957 16.0664 -98 
-51.466 16.0664 -98 -51.0363 16.0664 -98 -50.6066 16.0664 -98 
-50.1769 16.0664 -98 -49.7472 16.0664 -98 -49.3175 16.0664 -98 
-48.8878 16.0664 -98 -48.4581 16.0664 -98 -48.0284 16.0664 -98 
-47.5987 16.0664 -98 -47.169 16.0664 -98 -46.7393 16.0664 -98 
-46.3096 16.0664 -98 -45.8799 16.0664 -98 -54.4739 16.4961 -98 
-54.0442 16.4961 -98 -53.6145 16.4961 -98 -53.1848 16.4961 -98 
-52.7551 16.4961 -98 -52.3254 16.4961 -98 -51.8957 16.4961 -98 
-51.466 16.4961 -98 -51.0363 16.4961 -98 -50.6066 16.4961 -98 
-50.1769 16.4961 -98 -49.7472 16.4961 -98 -49.3175 16.4961 -98 
-48.8878 16.4961 -98 -48.4581 16.4961 -98 -48.0284 16.4961 -98 
-47.5987 16.4961 -98 -47.169 16.4961 -98 -46.7393 16.4961 -98 
-46.3096 16.4961 -98 -45.8799 16.4961 -98 -54.4739 16.9258 -98 
-54.0442 16.9258 -98 -53.6145 16.9258 -98 -53.1848 16.9258 -98 
-52.7551 16.9258 -98 -52.3254 16.9258 -98 -51.8957 16.9258 -98 
-51.466 16.9258 -98 -51.0363 16.9258 -98 -50.6066 16.9258 -98 
-50.1769 16.9258 -98 -49.7472 16.9258 -98 -49.3175 16.9258 -98 
-48.8878 16.9258 -98 -48.4581 16.9258 -98 -48.0284 16.9258 -98 
-47.5987 16.9258 -98 -47.169 16.9258 -98 -46.7393 16.9258 -98 
-46.3096 16.9258 -98 -45.8799 16.9258 -98 -54.0442 17.3555 -98 
-53.6145 17.3555 -98 -53.1848 17.3555 -98 -52.7551 17.3555 -98 
-52.3254 17.3555 -98 -51.8957 17.3555 -98 -51.466 17.3555 -98 
-51.0363 17.3555 -98 -50.6066 17.3555 -98 -50.1769 17.3555 -98 
-49.7472 17.3555 -98 -49.3175 17.3555 -98 -48.8878 17.3555 -98 
-48.4581 17.3555 -98 -48.0284 17.3555 -98 -47.5987 17.3555 -98 
-47.169 17.3555 -98 -46.7393 17.3555 -98 -46.3096 17.3555 -98 
-54.0442 17.7852 -98 -53.6145 17.7852 -98 -53.1848 17.7852 -98 
-52.7551 17.7852 -98 -52.3254 17.7852 -98 -51.8957 17.7852 -98 
-51.466 17.7852 -98 -51.0363 17.7852 -98 -50.6066 17.7852 -98 
-50.1769 17.7852 -98 -49.7472 17.7852 -98 -49.3175 17.7852 -98 
-48.8878 17.7852 -98 -48.4581 17.7852 -98 -48.0284 17.7852 -98 
-47.5987 17.7852 -98 -47.169 17.7852 -98 -46.7393 17.7852 -98 
-46.3096 17.7852 -98 -54.0442 18.2149 -98 -53.6145 18.2149 -98 
-53.1848 18.2149 -98 -52.7551 18.2149 -98 -52.3254 18.2149 -98 
-51.8957 18.2149 -98 -51.466 18.2149 -98 -51.0363 18.2149 -98 
-50.6066 18.2149 -98 -50.1769 18.2149 -98 -49.7472 18.2149 -98 
-49.3175 18.2149 -98 -48.8878 18.2149 -98 -48.4581 18.2149 -98 
-48.0284 18.2149 -98 -47.5987 18.2149 -98 -47.169 18.2149 -98 
-46.7393 18.2149 -98 -46.3096 18.2149 -98 -53.6145 18.6446 -98 
-53.1848 18.6446 -98 -52.7551 18.6446 -98 -52.3254 18.6446 -98 
-51.8957 18.6446 -98 -51.466 18.6446 -98 -51.0363 18.6446 -98 
-50.6066 18.6446 -98 -50.1769 18.6446 -98 -49.7472 18.6446 -98 
-49.3175 18.6446 -98 -48.8878 18.6446 -98 -48.4581 18.6446 -98 
-48.0284 18.6446 -98 -47.5987 18.6446 -98 -47.169 18.6446 -98 
-53.1848 19.0743 -98 -52.7551 19.0743 -98 -52.3254 19.0743 -98 
-51.8957 19.0743 -98 -51.466 19.0743 -98 -51.0363 19.0743 -98 
-50.6066 19.0743 -98 -50.1769 19.0743 -98 -49.7472 19.0743 -98 
-49.3175 19.0743 -98 -48.8878 19.0743 -98 -48.4581 19.0743 -98 
-48.0284 19.0743 -98 -47.5987 19.0743 -98 -53.1848 19.504 -98 
-52.7551 19.504 -98 -52.3254 19.504 -98 -51.8957 19.504 -98 
-51.466 19.504 -98 -51.0363 19.504 -98 -50.6066 19.504 -98 
-50.1769 19.504 -98 -49.7472 19.504 -98 -49.3175 19.504 -98 
-52.7551 19.9337 -98 -52.3254 19.9337 -98 -51.8957 19.9337 -98 
-51.466 19.9337 -98 -51.0363 19.9337 -98 -50.6066 19.9337 -98 
-50.1769 19.9337 -98 -49.7472 19.9337 -98 -52.7551 20.3634 -98 
-52.3254 20.3634 -98 -51.8957 20.3634 -98 -51.466 20.3634 -98 
-51.0363 20.3634 -98 -50.6066 20.3634 -98 -50.1769 20.3634 -98 
-50.6066 10.0506 -95 -50.1769 10.0506 -95 -49.7472 10.0506 -95 
-49.3175 10.0506 -95 -48.8878 10.0506 -95 -48.4581 10.0506 -95 
-55.3333 10.4803 -95 -54.9036 10.4803 -95 -52.7551 10.4803 -95 
-52.3254 10.4803 -95 -51.8957 10.4803 -95 -51.466 10.4803 -95 
-51.0363 10.4803 -95 -50.6066 10.4803 -95 -50.1769 10.4803 -95 
-49.7472 10.4803 -95 -49.3175 10.4803 -95 -48.8878 10.4803 -95 
-48.4581 10.4803 -95 -48.0284 10.4803 -95 -47.5987 10.4803 -95 
-55.3333 10.91 -95 -54.9036 10.91 -95 -54.4739 10.91 -95 
-54.0442 10.91 -95 -53.6145 10.91 -95 -53.1848 10.91 -95 
-52.7551 10.91 -95 -52.3254 10.91 -95 -51.8957 10.91 -95 
-51.466 10.91 -95 -51.0363 10.91 -95 -50.6066 10.91 -95 
-50.1769 10.91 -95 -49.7472 10.91 -95 -49.3175 10.91 -95 
-48.8878 10.91 -95 -48.4581 10.91 -95 -48.0284 10.91 -95 
-47.5987 10.91 -95 -47.169 10.91 -95 -55.3333 11.3397 -95 
-54.9036 11.3397 -95 -54.4739 11.3397 -95 -54.0442 11.3397 -95 
-53.6145 11.3397 -95 -53.1848 11.3397 -95 -52.7551 11.3397 -95 
-52.3254 11.3397 -95 -51.8957 11.3397 -95 -51.466 11.3397 -95 
-51.0363 11.3397 -95 -48.0284 11.3397 -95 -47.5987 11.3397 -95 
-47.169 11.3397 -95 -54.9036 11.7694 -95 -54.4739 11.7694 -95 
-54.0442 11.7694 -95 -53.6145 11.7694 -95 -53.1848 11.7694 -95 
-47.5987 11.7694 -95 -47.169 11.7694 -95 -54.9036 12.1991 -95 
-54.4739 12.1991 -95 -54.0442 12.1991 -95 -53.6145 12.1991 -95 
-47.5987 12.1991 -95 -47.169 12.1991 -95 -54.9036 12.6288 -95 
-54.4739 12.6288 -95 -54.0442 12.6288 -95 -47.5987 12.6288 -95 
-47.169 12.6288 -95 -54.9036 13.0585 -95 -54.4739 13.0585 -95 
-54.0442 13.0585 -95 -47.169 13.0585 -95 -54.9036 13.4882 -95 
-54.4739 13.4882 -95 -54.0442 13.4882 -95 -47.169 13.4882 -95 
-54.4739 13.9179 -95 -54.0442 13.9179 -95 -46.7393 13.9179 -95 
-57.0521 14.3476 -95 -56.6224 14.3476 -95 -54.4739 14.3476 -95 
-54.0442 14.3476 -95 -47.169 14.3476 -95 -57.0521 14.7773 -95 
-56.1927 14.7773 -95 -55.763 14.7773 -95 -54.0442 14.7773 -95 
-47.169 14.7773 -95 -56.6224 15.207 -95 -55.763 15.207 -95 
-55.3333 15.207 -95 -54.0442 15.207 -95 -48.0284 15.207 -95 
[...]
POINT_DATA 882
SCALARS scalars float
LOOKUP_TABLE default
255 255 255 255 255 255 255 255 255 
255 255 255 255 255 255 255 255 255 
255 255 255 255 255 255 255 255 255 
255 255 255 255 255 255 255 255 255 
255 255 255 255 255 255 255 255 255 
255 255 255 255 255 255 255 255 255 
255 255 255 255 255 255 255 255 255 
255 255 255 255 255 255 255 255 255 
255 255 255 255 255 255 255 255 255 
255 255 255 255 255 255 255 255 255 
255 255 255 255 255 255 255 255 255 
255 255 255 255 255 255 255 255 255 
255 255 255 255 255 255 255 255 255 
255 255 255 255 255 255 255 255 255 
255 255 255 255 255 255 255 255 255 
255 255 255 255 255 255 255 255 255 
255 255 255 255 255 255 255 255 255 
255 255 255 255 255 255 255 255 255 
255 255 255 255 255 255 255 255 255 
255 255 255 255 255 255 255 255 255 
255 255 255 255 255 255 255 255 255 
255 255 255 255 255 255 255 255 255 
255 255 255 255 255 255 255 255 255 
255 255 255 255 255 255 255 255 255 
255 255 255 255 255 255 255 255 255 
255 255 255 255 255 255 255 255 255 
255 255 255 255 255 255 255 255 255 
255 255 255 255 255 255 255 255 255 
255 255 255 255 255 255 255 255 255 
255 255 255 255 255 255 255 255 255 
255 255 255 255 255 255 255 255 255 
255 255 255 255 255 255 255 255 255 
255 255 255 255 255 255 255 255 255 
255 255 255 255 255 255 255 255 255 
255 255 255 255 255 255 255 255 255 
255 255 255 255 255 255 255 255 255 
255 255 255 255 255 255 255 255 255 
255 255 255 255 255 255 255 255 255 
255 255 255 255 255 255 255 255 255 
255 255 255 255 255 255 255 255 255 
255 255 255 255 255 255 255 255 255 
255 255 255 255 255 255 255 255 255 
255 255 255 255 255 255 255 255 255 
255 255 255 255 255 255 255 255 255 
255 255 255 255 255 255 255 255 255 
255 255 255 255 255 255 255 255 255 
255 255 255 255 255 255 255 255 255 
255 255 255 255 255 255 255 255 255 
255 255 255 255 255 255 255 255 255 
255 255 255 255 255 255 255 255 255 
255 255 255 255 255 255 255 255 255 
255 255 255 255 255 255 255 255 255 
255 255 255 255 255 255 255 255 255 
255 255 255 255 255 255 255 255 255 
255 255 255 255 255 255 255 255 255 
255 255 255 255 255 255 255 255 255 
255 255 255 255 255 255 255 255 255 
255 255 255 255 255 255 255 255 255 
255 255 255 255 255 255 255 255 255 
255 255 255 255 255 255 255 255 255 
255 255 255 255 255 255 255 255 255 
255 255 255 255 255 255 255 255 255 
255 255 255 255 255 255 255 255 255 
255 255 255 255 255 255 255 255 255 
255 255 255 255 255 255 255 255 255 
255 255 255 255 255 255 255 255 255 
255 255 255 255 255 255 255 255 255 
255 255 255 255 255 255 255 255 255 
255 255 255 255 255 255 255 255 255 
255 255 255 255 255 255 255 255 255 
255 255 255 255 255 255 255 255 255 
255 255 255 255 255 255 255 255 255 
255 255 255 255 255 255 255 255 255 
255 255 255 255 255 255 255 255 255 
255 255 255 255 255 255 255 255 255 
255 255 255 255 255 255 255 255 255 
255 255 255 255 255 255 255 255 255 
255 255 255 255 255 255 255 255 255 
255 255 255 255 255 255 255 255 255 
255 255 255 255 255 255 255 255 255 
255 255 255 255 255 255 255 255 255 
255 255 255 255 255 255 255 255 255 
255 255 255 255 255 255 255 255 255 
255 255 255 255 255 255 255 255 255 
255 255 255 255 255 255 255 255 255 
255 255 255 255 255 255 255 255 255 
255 255 255 255 255 255 255 255 255 
255 255 255 255 255 255 255 255 255 
255 255 255 255 255 255 255 255 255 
255 255 255 255 255 255 255 255 255 
255 255 255 255 255 255 255 255 255 
255 255 255 255 255 255 255 255 255 
255 255 255 255 255 255 255 255 255 
255 255 255 255 255 255 255 255 255 
255 255 255 255 255 255 255 255 255 
255 255 255 255 255 255 255 255 255 
255 255 255 255 255 255 255 255 255 
255 255 255 255 255 255 255 255 255 

